                         Program Version 4.0.1.2 - RELEASE -
|  1> ! PBEh-3c Opt Freq
|  2>
|  3> * xyz 0 1
|  4> C        1.7547506487      1.7925351130     -1.0660673544
|  5> C        0.9508398981      2.8745041913     -1.4407555197
|  6> C        1.4544049414      1.0655150267      0.0908920517
|  7> C       -0.1534224118      3.2294480579     -0.6584884260
|  8> C        0.3501423920      1.4204586345      0.8731589245
|  9> C       -0.4537734221      2.5024223276      0.4984660609
| 10> H        2.6090360168      1.5179373746     -1.6712539479
| 11> H        1.1831993307      3.4369510642     -2.3358086855
| 12> H        2.0763365799      0.2284771152      0.3807646521
| 13> H       -0.7753507645      4.0664894641     -0.9483579886
| 14> H        0.1177858199      0.8580147913      1.7682147377
| 15> H       -1.3080649656      2.7770134934      1.1036469228
| 16> *
| 17> %pal
| 18>  nprocs 4
| 19> end
| 20>
| 21>                          ****END OF INPUT****
 Total Charge           Charge          ....    0
 Multiplicity           Mult            ....    1
 Number of Electrons    NEL             ....   42
Dispersion correction           -0.005870832
FINAL SINGLE POINT ENERGY      -231.725128444663
Dispersion correction            ... done
Dispersion correction           -0.005888077
FINAL SINGLE POINT ENERGY      -231.725860241290
Dispersion correction            ... done
Dispersion correction           -0.005890073
FINAL SINGLE POINT ENERGY      -231.725871514217
Dispersion correction            ... done
                    ***********************HURRAY********************

CARTESIAN COORDINATES (ANGSTROEM)
---------------------------------
  C      1.745893    1.795753   -1.059753
  C      0.948412    2.868970   -1.431118
  C      1.448047    1.074349    0.087654
  C     -0.147066    3.220612   -0.655252
  C      0.352569    1.425991    0.863520
  C     -0.444912    2.499208    0.492155
  H      2.599741    1.520309   -1.665166
  H      1.181028    3.431143   -2.326242
  H      2.070004    0.237542    0.378117
  H     -0.769024    4.057420   -0.945715
  H      0.119953    0.863818    1.758644
  H     -1.298760    2.774652    1.097568

 Multiplicity           Mult            ....    1
 Number of Electrons    NEL             ....   42
 Basis Dimension        Dim             ....  102

ORBITAL ENERGIES
----------------

  NO   OCC          E(Eh)            E(eV)
   0   2.0000     -10.447281      -284.2850
   1   2.0000     -10.447047      -284.2786
   2   2.0000     -10.447045      -284.2785
   3   2.0000     -10.446405      -284.2611
   4   2.0000     -10.446403      -284.2611
   5   2.0000     -10.446162      -284.2545
   6   2.0000      -0.955284       -25.9946
   7   2.0000      -0.836890       -22.7729
   8   2.0000      -0.836888       -22.7729
   9   2.0000      -0.679432       -18.4883
  10   2.0000      -0.679429       -18.4882
  11   2.0000      -0.593276       -16.1439
  12   2.0000      -0.524043       -14.2599
  13   2.0000      -0.510253       -13.8847
  14   2.0000      -0.481997       -13.1158
  15   2.0000      -0.481992       -13.1157
  16   2.0000      -0.423041       -11.5115
  17   2.0000      -0.397814       -10.8251
  18   2.0000      -0.397813       -10.8250
  19   2.0000      -0.293327        -7.9818
  20   2.0000      -0.293322        -7.9817
  21   0.0000       0.020640         0.5616
  22   0.0000       0.020659         0.5622
  23   0.0000       0.140032         3.8105
  24   0.0000       0.199507         5.4289
  25   0.0000       0.201342         5.4788

MULLIKEN ATOMIC CHARGES
-----------------------
   0 C :   -0.219142
   1 C :   -0.219209
   2 C :   -0.219254
   3 C :   -0.219254
   4 C :   -0.219209
   5 C :   -0.219142
   6 H :    0.219158
   7 H :    0.219275
   8 H :    0.219173
   9 H :    0.219173
  10 H :    0.219275
  11 H :    0.219158
Sum of atomic charges:   -0.0000000

LOEWDIN ATOMIC CHARGES
----------------------
   0 C :   -0.135445
   1 C :   -0.135467
   2 C :   -0.135477
   3 C :   -0.135477
   4 C :   -0.135467
   5 C :   -0.135445
   6 H :    0.135461
   7 H :    0.135462
   8 H :    0.135465
   9 H :    0.135465
  10 H :    0.135462
  11 H :    0.135461

  Mayer bond orders larger than 0.1
B(  0-C ,  1-C ) :   1.4270 B(  0-C ,  2-C ) :   1.4270 B(  0-C ,  6-H ) :   0.9203
B(  1-C ,  3-C ) :   1.4272 B(  1-C ,  7-H ) :   0.9203 B(  2-C ,  4-C ) :   1.4272
B(  2-C ,  8-H ) :   0.9203 B(  3-C ,  5-C ) :   1.4270 B(  3-C ,  9-H ) :   0.9203
B(  4-C ,  5-C ) :   1.4270 B(  4-C , 10-H ) :   0.9203 B(  5-C , 11-H ) :   0.9203

Dispersion correction           -0.005890017
FINAL SINGLE POINT ENERGY      -231.725871552345

DIPOLE MOMENT
-------------
                                X             Y             Z
Electronic contribution:      0.00000       0.00000       0.00000
Nuclear contribution   :     -0.00000      -0.00000      -0.00000
                        -----------------------------------------
Total Dipole Moment    :      0.00000      -0.00000      -0.00000
                        -----------------------------------------
Magnitude (a.u.)       :      0.00000
Magnitude (Debye)      :      0.00000

Dispersion correction in the Hessian             ... done   (      2.5 sec)

VIBRATIONAL FREQUENCIES
-----------------------

   0:         0.00 cm**-1
   1:         0.00 cm**-1
   2:         0.00 cm**-1
   3:         0.00 cm**-1
   4:         0.00 cm**-1
   5:         0.00 cm**-1
   6:       422.29 cm**-1
   7:       423.11 cm**-1
   8:       634.07 cm**-1
   9:       634.14 cm**-1
  10:       714.45 cm**-1
  11:       744.07 cm**-1
  12:       898.76 cm**-1
  13:       899.05 cm**-1
  14:      1026.18 cm**-1
  15:      1026.61 cm**-1
  16:      1044.77 cm**-1
  17:      1053.21 cm**-1
  18:      1064.62 cm**-1
  19:      1098.35 cm**-1
  20:      1098.42 cm**-1
  21:      1204.85 cm**-1
  22:      1233.68 cm**-1
  23:      1233.74 cm**-1
  24:      1396.32 cm**-1
  25:      1422.79 cm**-1
  26:      1567.88 cm**-1
  27:      1567.97 cm**-1
  28:      1718.28 cm**-1
  29:      1718.37 cm**-1
  30:      3258.10 cm**-1
  31:      3267.15 cm**-1
  32:      3267.40 cm**-1
  33:      3281.48 cm**-1
  34:      3281.76 cm**-1
  35:      3290.80 cm**-1

IR SPECTRUM
-----------

 Mode    freq (cm**-1)   T**2         TX         TY         TZ
-------------------------------------------------------------------
   6:       422.29    0.000054  (  0.006534   0.003333  -0.000666)
   7:       423.11    0.000013  (  0.002544  -0.002300   0.001224)
   8:       634.07    0.000000  (  0.000000   0.000000   0.000000)
   9:       634.14    0.000000  (  0.000001   0.000000   0.000000)
  10:       714.45  129.567696  ( -6.594961  -7.002798  -6.085639)
  11:       744.07    0.000000  ( -0.000001   0.000001   0.000001)
  12:       898.76    0.000000  (  0.000001  -0.000001   0.000001)
  13:       899.05    0.000000  (  0.000001   0.000000  -0.000002)
  14:      1026.18    0.000009  ( -0.001971   0.002291  -0.000114)
  15:      1026.61    0.001992  ( -0.034640   0.025629   0.011631)
  16:      1044.77    0.000015  (  0.000661   0.003443   0.001537)
  17:      1053.21    0.000000  (  0.000000  -0.000000  -0.000000)
  18:      1064.62    0.000000  ( -0.000002   0.000001   0.000001)
  19:      1098.35    6.192536  (  2.023203  -1.247024  -0.737643)
  20:      1098.42    6.182887  ( -0.214684  -1.511532   1.962669)
  21:      1204.85    0.000001  (  0.001006  -0.000624  -0.000132)
  22:      1233.68    0.000000  (  0.000000   0.000000   0.000000)
  23:      1233.74    0.000000  (  0.000000  -0.000000   0.000000)
  24:      1396.32    0.000003  (  0.000729   0.000586  -0.001362)
  25:      1422.79    0.000000  (  0.000000   0.000000  -0.000000)
  26:      1567.88   11.474951  (  2.626270  -2.100241  -0.408223)
  27:      1567.97   11.464704  (  0.877489   1.645880  -2.825915)
  28:      1718.28    0.000000  (  0.000000   0.000000   0.000000)
  29:      1718.37    0.000000  (  0.000000   0.000000   0.000000)
  30:      3258.10    0.001649  (  0.004803   0.015759  -0.037117)
  31:      3267.15    0.000000  (  0.000002  -0.000001  -0.000001)
  32:      3267.40    0.000000  (  0.000001  -0.000001   0.000001)
  33:      3281.48   24.965562  ( -3.921552   2.992850   0.793627)
  34:      3281.76   24.942129  ( -1.114692  -2.559556   4.141046)
  35:      3290.80    0.000000  ( -0.000003  -0.000000   0.000004)

--------------------------
THERMOCHEMISTRY AT 298.15K
--------------------------

Temperature         ... 298.15 K
Pressure            ... 1.00 atm
Total Mass          ... 78.11 AMU

Throughout the following assumptions are being made:
  (1) The electronic state is orbitally nondegenerate
  (2) There are no thermally accessible electronically excited states
  (3) Hindered rotations indicated by low frequency modes are not
      treated as such but are treated as vibrations and this may
      cause some error
  (4) All equations used are the standard statistical mechanics
      equations for an ideal gas
  (5) All vibrations are strictly harmonic

freq.     422.29  E(vib)   ...       0.18
freq.     423.11  E(vib)   ...       0.18
freq.     634.07  E(vib)   ...       0.09
freq.     634.14  E(vib)   ...       0.09
freq.     714.45  E(vib)   ...       0.07
freq.     744.07  E(vib)   ...       0.06
freq.     898.76  E(vib)   ...       0.03
freq.     899.05  E(vib)   ...       0.03
freq.    1026.18  E(vib)   ...       0.02
freq.    1026.61  E(vib)   ...       0.02
freq.    1044.77  E(vib)   ...       0.02
freq.    1053.21  E(vib)   ...       0.02
freq.    1064.62  E(vib)   ...       0.02
freq.    1098.35  E(vib)   ...       0.02
freq.    1098.42  E(vib)   ...       0.02
freq.    1204.85  E(vib)   ...       0.01
freq.    1233.68  E(vib)   ...       0.01
freq.    1233.74  E(vib)   ...       0.01
freq.    1396.32  E(vib)   ...       0.00
freq.    1422.79  E(vib)   ...       0.00
freq.    1567.88  E(vib)   ...       0.00
freq.    1567.97  E(vib)   ...       0.00
freq.    1718.28  E(vib)   ...       0.00
freq.    1718.37  E(vib)   ...       0.00
freq.    3258.10  E(vib)   ...       0.00
freq.    3267.15  E(vib)   ...       0.00
freq.    3267.40  E(vib)   ...       0.00
freq.    3281.48  E(vib)   ...       0.00
freq.    3281.76  E(vib)   ...       0.00
freq.    3290.80  E(vib)   ...       0.00

------------
INNER ENERGY
------------

The inner energy is: U= E(el) + E(ZPE) + E(vib) + E(rot) + E(trans)
    E(el)   - is the total energy from the electronic structure calculation
              = E(kin-el) + E(nuc-el) + E(el-el) + E(nuc-nuc)
    E(ZPE)  - the the zero temperature vibrational energy from the frequency calculation
    E(vib)  - the the finite temperature correction to E(ZPE) due to population
              of excited vibrational states
    E(rot)  - is the rotational thermal energy
    E(trans)- is the translational thermal energy

Summary of contributions to the inner energy U:
Electronic energy                ...   -231.72587155 Eh
Zero point energy                ...      0.10363987 Eh      65.03 kcal/mol
Thermal vibrational correction   ...      0.00144946 Eh       0.91 kcal/mol
Thermal rotational correction    ...      0.00141627 Eh       0.89 kcal/mol
Thermal translational correction ...      0.00141627 Eh       0.89 kcal/mol
-----------------------------------------------------------------------
Total thermal energy                   -231.61794968 Eh

Summary of corrections to the electronic energy:
(perhaps to be used in another calculation)
Total thermal correction                  0.00428200 Eh       2.69 kcal/mol
Non-thermal (ZPE) correction              0.10363987 Eh      65.03 kcal/mol
-----------------------------------------------------------------------
Total correction                          0.10792187 Eh      67.72 kcal/mol

--------
ENTHALPY
--------

The enthalpy is H = U + kB*T
                kB is Boltzmann's constant
Total free energy                 ...   -231.61794968 Eh
Thermal Enthalpy correction       ...      0.00094421 Eh       0.59 kcal/mol
-----------------------------------------------------------------------
Total Enthalpy                    ...   -231.61700547 Eh

Vibrational entropy computed according to the QRRHO of S. Grimme
Chem.Eur.J. 2012 18 9955

-------
ENTROPY
-------

The entropy contributions are T*S = T*(S(el)+S(vib)+S(rot)+S(trans)
     S(el)   - electronic entropy
     S(vib)  - vibrational entropy
     S(rot)  - rotational entropy
     S(trans)- translational entropy
The entropies will be listed as mutliplied by the temperature to get
units of energy

Electronic entropy                ...      0.00000000 Eh      0.00 kcal/mol
Vibrational entropy               ...      0.00193907 Eh      1.22 kcal/mol
Rotational entropy                ...      0.01113857 Eh      6.99 kcal/mol
Translational entropy             ...      0.01852142 Eh     11.62 kcal/mol
-----------------------------------------------------------------------
Final entropy term                ...      0.03159906 Eh     19.83 kcal/mol

CAUTION: The rotational entropy is not quite correctly treated here
         because it includes a symmetry number that is not yet correctly
         implemented in ORCA!
For a nonlinear molecule the correct rotational entropy is:
    S(rot) = R*(ln(qrot/sn)+1.5)
    R    = 8.31441 J/mol/K = 1.987191683e-3 kcal/mol/K
    qrot = 88936.7561714
    sn is the rotational symmetry number. We have assumed 3 here
       if it is different for your molecule then you should correct
       the printed rotational entropy by manually evaluating the equation
       as given above

For convenience we print out the resulting values for sn=1 - 12:
 sn= 1  qrot/sn=   88936.7562 T*S(rot)=     7.64 kcal/mol T*S(tot)=    20.48 kcal/mol
 sn= 2  qrot/sn=   44468.3781 T*S(rot)=     7.23 kcal/mol T*S(tot)=    20.07 kcal/mol
 sn= 3  qrot/sn=   29645.5854 T*S(rot)=     6.99 kcal/mol T*S(tot)=    19.83 kcal/mol
 sn= 4  qrot/sn=   22234.1890 T*S(rot)=     6.82 kcal/mol T*S(tot)=    19.66 kcal/mol
 sn= 5  qrot/sn=   17787.3512 T*S(rot)=     6.69 kcal/mol T*S(tot)=    19.53 kcal/mol
 sn= 6  qrot/sn=   14822.7927 T*S(rot)=     6.58 kcal/mol T*S(tot)=    19.42 kcal/mol
 sn= 7  qrot/sn=   12705.2509 T*S(rot)=     6.49 kcal/mol T*S(tot)=    19.33 kcal/mol
 sn= 8  qrot/sn=   11117.0945 T*S(rot)=     6.41 kcal/mol T*S(tot)=    19.25 kcal/mol
 sn= 9  qrot/sn=    9881.8618 T*S(rot)=     6.34 kcal/mol T*S(tot)=    19.18 kcal/mol
 sn=10  qrot/sn=    8893.6756 T*S(rot)=     6.28 kcal/mol T*S(tot)=    19.12 kcal/mol
 sn=11  qrot/sn=    8085.1597 T*S(rot)=     6.22 kcal/mol T*S(tot)=    19.06 kcal/mol
 sn=12  qrot/sn=    7411.3963 T*S(rot)=     6.17 kcal/mol T*S(tot)=    19.01 kcal/mol

-------------------
GIBBS FREE ENTHALPY
-------------------

The Gibbs free enthalpy is G = H - T*S

Total enthalpy                    ...   -231.61700547 Eh
Total entropy correction          ...     -0.03159906 Eh    -19.83 kcal/mol
-----------------------------------------------------------------------
Final Gibbs free enthalpy         ...   -231.64860453 Eh

For completeness - the Gibbs free enthalpy minus the electronic energy
G-E(el)                           ...      0.07726702 Eh     48.49 kcal/mol

                             ****ORCA TERMINATED NORMALLY****
TOTAL RUN TIME: 0 days 0 hours 2 minutes 35 seconds 279 msec
